phonopy:
  version: "3.5.1"
  frequency_unit_conversion_factor: 15.633302
  symmetry_tolerance: 1.00000e-05

physical_unit:
  atomic_mass: "AMU"
  length: "angstrom"

space_group:
  type: "Fd-3m"
  number: 227
  Hall_symbol: "F 4d 2 3 -1d"

supercell_matrix:
- [   2,   0,   0 ]
- [   0,   2,   0 ]
- [   0,   0,   2 ]

primitive_cell:
  lattice:
  - [    -0.000000035856000,     2.704010949760000,     2.704010949840000 ] # a
  - [     2.704010999672000,     0.000000017611000,     2.704010979397000 ] # b
  - [     2.704010999826000,     2.704010979471000,     0.000000017581000 ] # c
  points:
  - symbol: Si # 1
    coordinates: [  0.000000000000000,  0.000000000000000,  0.000000000000000 ]
    mass: 28.085500
  - symbol: Si # 2
    coordinates: [  0.250000001385997,  0.249999999832748,  0.249999999830529 ]
    mass: 28.085500
  reciprocal_lattice: # without 2pi
  - [    -0.184910492399868,     0.184910492589565,     0.184910492582043 ] # a*
  - [     0.184910489176394,    -0.184910491770601,     0.184910494217099 ] # b*
  - [     0.184910489163811,     0.184910494212038,    -0.184910491754599 ] # c*

unit_cell:
  lattice:
  - [    -0.000000035856000,     2.704010949760000,     2.704010949840000 ] # a
  - [     2.704010999672000,     0.000000017611000,     2.704010979397000 ] # b
  - [     2.704010999826000,     2.704010979471000,     0.000000017581000 ] # c
  points:
  - symbol: Si # 1
    coordinates: [  0.000000000000000,  0.000000000000000,  0.000000000000000 ]
    mass: 28.085500
    reduced_to: 1
  - symbol: Si # 2
    coordinates: [  0.250000001385997,  0.249999999832748,  0.249999999830529 ]
    mass: 28.085500
    reduced_to: 2

supercell:
  lattice:
  - [    -0.000000071712000,     5.408021899520000,     5.408021899680000 ] # a
  - [     5.408021999344000,     0.000000035222000,     5.408021958794000 ] # b
  - [     5.408021999652000,     5.408021958942000,     0.000000035162000 ] # c
  points:
  - symbol: Si # 1
    coordinates: [  0.000000000000000,  0.000000000000000,  0.000000000000000 ]
    mass: 28.085500
    reduced_to: 1
  - symbol: Si # 2
    coordinates: [  0.500000000000000,  0.000000000000000,  0.000000000000000 ]
    mass: 28.085500
    reduced_to: 1
  - symbol: Si # 3
    coordinates: [  0.000000000000000,  0.500000000000000,  0.000000000000000 ]
    mass: 28.085500
    reduced_to: 1
  - symbol: Si # 4
    coordinates: [  0.500000000000000,  0.500000000000000,  0.000000000000000 ]
    mass: 28.085500
    reduced_to: 1
  - symbol: Si # 5
    coordinates: [  0.000000000000000,  0.000000000000000,  0.500000000000000 ]
    mass: 28.085500
    reduced_to: 1
  - symbol: Si # 6
    coordinates: [  0.500000000000000,  0.000000000000000,  0.500000000000000 ]
    mass: 28.085500
    reduced_to: 1
  - symbol: Si # 7
    coordinates: [  0.000000000000000,  0.500000000000000,  0.500000000000000 ]
    mass: 28.085500
    reduced_to: 1
  - symbol: Si # 8
    coordinates: [  0.500000000000000,  0.500000000000000,  0.500000000000000 ]
    mass: 28.085500
    reduced_to: 1
  - symbol: Si # 9
    coordinates: [  0.125000000692998,  0.124999999916374,  0.124999999915265 ]
    mass: 28.085500
    reduced_to: 9
  - symbol: Si # 10
    coordinates: [  0.625000000692998,  0.124999999916374,  0.124999999915265 ]
    mass: 28.085500
    reduced_to: 9
  - symbol: Si # 11
    coordinates: [  0.125000000692998,  0.624999999916374,  0.124999999915265 ]
    mass: 28.085500
    reduced_to: 9
  - symbol: Si # 12
    coordinates: [  0.625000000692998,  0.624999999916374,  0.124999999915265 ]
    mass: 28.085500
    reduced_to: 9
  - symbol: Si # 13
    coordinates: [  0.125000000692998,  0.124999999916374,  0.624999999915265 ]
    mass: 28.085500
    reduced_to: 9
  - symbol: Si # 14
    coordinates: [  0.625000000692998,  0.124999999916374,  0.624999999915265 ]
    mass: 28.085500
    reduced_to: 9
  - symbol: Si # 15
    coordinates: [  0.125000000692998,  0.624999999916374,  0.624999999915265 ]
    mass: 28.085500
    reduced_to: 9
  - symbol: Si # 16
    coordinates: [  0.625000000692998,  0.624999999916374,  0.624999999915265 ]
    mass: 28.085500
    reduced_to: 9

displacements:
- atom:    1
  displacement:
    [  -0.0000000000937645,  0.0070710678117609,  0.0070710678119701 ]
