phonopy:
  version: "3.5.1"
  frequency_unit_conversion_factor: 15.633302
  symmetry_tolerance: 1.00000e-05

physical_unit:
  atomic_mass: "AMU"
  length: "angstrom"

space_group:
  type: "Fd-3m"
  number: 227
  Hall_symbol: "F 4d 2 3 -1d"

supercell_matrix:
- [   1,   0,   0 ]
- [   0,   1,   0 ]
- [   0,   0,   1 ]

primitive_cell:
  lattice:
  - [    -0.000000071712000,     5.408021899520000,     5.408021899680000 ] # a
  - [     5.408021999344000,     0.000000035222000,     5.408021958794000 ] # b
  - [     5.408021999652000,     5.408021958942000,     0.000000035162000 ] # c
  points:
  - symbol: Si # 1
    coordinates: [  0.000000000000000,  0.000000000000000,  0.000000000000000 ]
    mass: 28.085500
  - symbol: Si # 2
    coordinates: [  0.125000000692998,  0.124999999916374,  0.124999999915265 ]
    mass: 28.085500
  - symbol: Si # 3
    coordinates: [  0.000000000000000,  0.000000000000000,  0.500000000000000 ]
    mass: 28.085500
  - symbol: Si # 4
    coordinates: [  0.125000000692998,  0.124999999916374,  0.624999999915265 ]
    mass: 28.085500
  - symbol: Si # 5
    coordinates: [  0.000000000000000,  0.500000000000000,  0.000000000000000 ]
    mass: 28.085500
  - symbol: Si # 6
    coordinates: [  0.125000000692998,  0.624999999916374,  0.124999999915265 ]
    mass: 28.085500
  - symbol: Si # 7
    coordinates: [  0.000000000000000,  0.500000000000000,  0.500000000000000 ]
    mass: 28.085500
  - symbol: Si # 8
    coordinates: [  0.125000000692998,  0.624999999916375,  0.624999999915265 ]
    mass: 28.085500
  - symbol: Si # 9
    coordinates: [  0.500000000000000,  1.000000000000000,  0.000000000000000 ]
    mass: 28.085500
  - symbol: Si # 10
    coordinates: [  0.625000000692998,  0.124999999916374,  0.124999999915265 ]
    mass: 28.085500
  - symbol: Si # 11
    coordinates: [  0.500000000000000,  0.000000000000000,  0.500000000000000 ]
    mass: 28.085500
  - symbol: Si # 12
    coordinates: [  0.625000000692998,  0.124999999916374,  0.624999999915265 ]
    mass: 28.085500
  - symbol: Si # 13
    coordinates: [  0.500000000000000,  0.500000000000000,  0.000000000000000 ]
    mass: 28.085500
  - symbol: Si # 14
    coordinates: [  0.625000000692998,  0.624999999916374,  0.124999999915265 ]
    mass: 28.085500
  - symbol: Si # 15
    coordinates: [  0.500000000000000,  0.500000000000000,  0.500000000000000 ]
    mass: 28.085500
  - symbol: Si # 16
    coordinates: [  0.625000000692998,  0.624999999916374,  0.624999999915265 ]
    mass: 28.085500
  reciprocal_lattice: # without 2pi
  - [    -0.092455246199934,     0.092455246294782,     0.092455246291021 ] # a*
  - [     0.092455244588197,    -0.092455245885300,     0.092455247108549 ] # b*
  - [     0.092455244581905,     0.092455247106019,    -0.092455245877299 ] # c*

unit_cell:
  lattice:
  - [    -0.000000071712000,     5.408021899520000,     5.408021899680000 ] # a
  - [     5.408021999344000,     0.000000035222000,     5.408021958794000 ] # b
  - [     5.408021999652000,     5.408021958942000,     0.000000035162000 ] # c
  points:
  - symbol: Si # 1
    coordinates: [  0.000000000000000,  0.000000000000000,  0.000000000000000 ]
    mass: 28.085500
    reduced_to: 1
  - symbol: Si # 2
    coordinates: [  0.125000000692998,  0.124999999916374,  0.124999999915265 ]
    mass: 28.085500
    reduced_to: 2
  - symbol: Si # 3
    coordinates: [  0.000000000000000,  0.000000000000000,  0.500000000000000 ]
    mass: 28.085500
    reduced_to: 3
  - symbol: Si # 4
    coordinates: [  0.125000000692998,  0.124999999916374,  0.624999999915265 ]
    mass: 28.085500
    reduced_to: 4
  - symbol: Si # 5
    coordinates: [ -0.000000000000000,  0.500000000000000, -0.000000000000000 ]
    mass: 28.085500
    reduced_to: 5
  - symbol: Si # 6
    coordinates: [  0.125000000692998,  0.624999999916374,  0.124999999915265 ]
    mass: 28.085500
    reduced_to: 6
  - symbol: Si # 7
    coordinates: [  0.000000000000000,  0.500000000000000,  0.500000000000000 ]
    mass: 28.085500
    reduced_to: 7
  - symbol: Si # 8
    coordinates: [  0.125000000692998,  0.624999999916375,  0.624999999915265 ]
    mass: 28.085500
    reduced_to: 8
  - symbol: Si # 9
    coordinates: [  0.500000000000000, -0.000000000000000,  0.000000000000000 ]
    mass: 28.085500
    reduced_to: 9
  - symbol: Si # 10
    coordinates: [  0.625000000692998,  0.124999999916374,  0.124999999915265 ]
    mass: 28.085500
    reduced_to: 10
  - symbol: Si # 11
    coordinates: [  0.500000000000000,  0.000000000000000,  0.500000000000000 ]
    mass: 28.085500
    reduced_to: 11
  - symbol: Si # 12
    coordinates: [  0.625000000692998,  0.124999999916374,  0.624999999915265 ]
    mass: 28.085500
    reduced_to: 12
  - symbol: Si # 13
    coordinates: [  0.500000000000000,  0.500000000000000,  0.000000000000000 ]
    mass: 28.085500
    reduced_to: 13
  - symbol: Si # 14
    coordinates: [  0.625000000692998,  0.624999999916374,  0.124999999915265 ]
    mass: 28.085500
    reduced_to: 14
  - symbol: Si # 15
    coordinates: [  0.500000000000000,  0.500000000000000,  0.500000000000000 ]
    mass: 28.085500
    reduced_to: 15
  - symbol: Si # 16
    coordinates: [  0.625000000692998,  0.624999999916374,  0.624999999915265 ]
    mass: 28.085500
    reduced_to: 16

supercell:
  lattice:
  - [    -0.000000071712000,     5.408021899520000,     5.408021899680000 ] # a
  - [     5.408021999344000,     0.000000035222000,     5.408021958794000 ] # b
  - [     5.408021999652000,     5.408021958942000,     0.000000035162000 ] # c
  points:
  - symbol: Si # 1
    coordinates: [  0.000000000000000,  0.000000000000000,  0.000000000000000 ]
    mass: 28.085500
    reduced_to: 1
  - symbol: Si # 2
    coordinates: [  0.125000000692998,  0.124999999916374,  0.124999999915265 ]
    mass: 28.085500
    reduced_to: 2
  - symbol: Si # 3
    coordinates: [  0.000000000000000,  0.000000000000000,  0.500000000000000 ]
    mass: 28.085500
    reduced_to: 3
  - symbol: Si # 4
    coordinates: [  0.125000000692998,  0.124999999916374,  0.624999999915265 ]
    mass: 28.085500
    reduced_to: 4
  - symbol: Si # 5
    coordinates: [  1.000000000000000,  0.500000000000000,  1.000000000000000 ]
    mass: 28.085500
    reduced_to: 5
  - symbol: Si # 6
    coordinates: [  0.125000000692998,  0.624999999916374,  0.124999999915265 ]
    mass: 28.085500
    reduced_to: 6
  - symbol: Si # 7
    coordinates: [  0.000000000000000,  0.500000000000000,  0.500000000000000 ]
    mass: 28.085500
    reduced_to: 7
  - symbol: Si # 8
    coordinates: [  0.125000000692998,  0.624999999916375,  0.624999999915265 ]
    mass: 28.085500
    reduced_to: 8
  - symbol: Si # 9
    coordinates: [  0.500000000000000,  1.000000000000000,  0.000000000000000 ]
    mass: 28.085500
    reduced_to: 9
  - symbol: Si # 10
    coordinates: [  0.625000000692998,  0.124999999916374,  0.124999999915265 ]
    mass: 28.085500
    reduced_to: 10
  - symbol: Si # 11
    coordinates: [  0.500000000000000,  0.000000000000000,  0.500000000000000 ]
    mass: 28.085500
    reduced_to: 11
  - symbol: Si # 12
    coordinates: [  0.625000000692998,  0.124999999916374,  0.624999999915265 ]
    mass: 28.085500
    reduced_to: 12
  - symbol: Si # 13
    coordinates: [  0.500000000000000,  0.500000000000000,  0.000000000000000 ]
    mass: 28.085500
    reduced_to: 13
  - symbol: Si # 14
    coordinates: [  0.625000000692998,  0.624999999916374,  0.124999999915265 ]
    mass: 28.085500
    reduced_to: 14
  - symbol: Si # 15
    coordinates: [  0.500000000000000,  0.500000000000000,  0.500000000000000 ]
    mass: 28.085500
    reduced_to: 15
  - symbol: Si # 16
    coordinates: [  0.625000000692998,  0.624999999916374,  0.624999999915265 ]
    mass: 28.085500
    reduced_to: 16

displacements:
- atom:    1
  displacement:
    [  -0.0000000000937645,  0.0070710678117609,  0.0070710678119701 ]
